6850739
  -OEChem-08301309522D

145 144  0     1  0  0  0  0  0999 V2000
    6.3301   -7.8170    0.0000 P   0  0  3  0  0  0  0  0  0  0  0  0
    5.4641   -8.3170    0.0000 O   0  0  0  0  0  0  0  0  0  0  0  0
    7.1962   -7.3170    0.0000 O   0  0  0  0  0  0  0  0  0  0  0  0
    9.7942   -7.8170    0.0000 O   0  0  0  0  0  0  0  0  0  0  0  0
    9.7942   -5.8170    0.0000 O   0  0  0  0  0  0  0  0  0  0  0  0
    5.8301   -6.9510    0.0000 O   0  0  0  0  0  0  0  0  0  0  0  0
    6.8301   -8.6830    0.0000 O   0  0  0  0  0  0  0  0  0  0  0  0
   10.6603   -6.3170    0.0000 O   0  0  0  0  0  0  0  0  0  0  0  0
    8.9282   -4.3170    0.0000 O   0  0  0  0  0  0  0  0  0  0  0  0
    2.8660   -7.8170    0.0000 N   0  3  0  0  0  0  0  0  0  0  0  0
    3.7320   -8.3170    0.0000 C   0  0  0  0  0  0  0  0  0  0  0  0
    2.0000   -7.3170    0.0000 C   0  0  0  0  0  0  0  0  0  0  0  0
    2.3660   -8.6830    0.0000 C   0  0  0  0  0  0  0  0  0  0  0  0
    3.3660   -6.9510    0.0000 C   0  0  0  0  0  0  0  0  0  0  0  0
    4.5981   -7.8170    0.0000 C   0  0  0  0  0  0  0  0  0  0  0  0
   21.9186   -7.8170    0.0000 C   0  0  0  0  0  0  0  0  0  0  0  0
   15.8564    4.6830    0.0000 C   0  0  0  0  0  0  0  0  0  0  0  0
   22.7846   -7.3170    0.0000 C   0  0  0  0  0  0  0  0  0  0  0  0
   15.8564    5.6830    0.0000 C   0  0  0  0  0  0  0  0  0  0  0  0
   21.0526   -7.3170    0.0000 C   0  0  0  0  0  0  0  0  0  0  0  0
   14.9904    4.1830    0.0000 C   0  0  0  0  0  0  0  0  0  0  0  0
   23.6506   -7.8170    0.0000 C   0  0  0  0  0  0  0  0  0  0  0  0
   16.7224    6.1830    0.0000 C   0  0  0  0  0  0  0  0  0  0  0  0
   20.1865   -7.8170    0.0000 C   0  0  0  0  0  0  0  0  0  0  0  0
   14.9904    3.1830    0.0000 C   0  0  0  0  0  0  0  0  0  0  0  0
   14.1244   -7.3170    0.0000 C   0  0  0  0  0  0  0  0  0  0  0  0
   14.9904   -7.8170    0.0000 C   0  0  0  0  0  0  0  0  0  0  0  0
   11.5263   -1.8170    0.0000 C   0  0  0  0  0  0  0  0  0  0  0  0
   13.2583   -7.8170    0.0000 C   0  0  0  0  0  0  0  0  0  0  0  0
   12.3923   -1.3170    0.0000 C   0  0  0  0  0  0  0  0  0  0  0  0
   15.8564   -7.3170    0.0000 C   0  0  0  0  0  0  0  0  0  0  0  0
   11.5263   -2.8170    0.0000 C   0  0  0  0  0  0  0  0  0  0  0  0
   24.5167   -7.3170    0.0000 C   0  0  0  0  0  0  0  0  0  0  0  0
   16.7224    7.1830    0.0000 C   0  0  0  0  0  0  0  0  0  0  0  0
   12.3923   -0.3170    0.0000 C   0  0  0  0  0  0  0  0  0  0  0  0
   19.3205   -7.3170    0.0000 C   0  0  0  0  0  0  0  0  0  0  0  0
   14.1244    2.6830    0.0000 C   0  0  0  0  0  0  0  0  0  0  0  0
   12.3923   -7.3170    0.0000 C   0  0  0  0  0  0  0  0  0  0  0  0
   16.7224   -7.8170    0.0000 C   0  0  0  0  0  0  0  0  0  0  0  0
   10.6603   -3.3170    0.0000 C   0  0  0  0  0  0  0  0  0  0  0  0
   13.2583    0.1830    0.0000 C   0  0  0  0  0  0  0  0  0  0  0  0
   25.3827   -7.8170    0.0000 C   0  0  0  0  0  0  0  0  0  0  0  0
   17.5885    7.6830    0.0000 C   0  0  0  0  0  0  0  0  0  0  0  0
   11.5263   -7.8170    0.0000 C   0  0  0  0  0  0  0  0  0  0  0  0
   18.4545   -7.8170    0.0000 C   0  0  0  0  0  0  0  0  0  0  0  0
   14.1244    1.6830    0.0000 C   0  0  0  0  0  0  0  0  0  0  0  0
    8.9282   -7.3170    0.0000 C   0  0  3  0  0  0  0  0  0  0  0  0
   17.5885   -7.3170    0.0000 C   0  0  0  0  0  0  0  0  0  0  0  0
   10.6603   -4.3170    0.0000 C   0  0  0  0  0  0  0  0  0  0  0  0
   13.2583    1.1830    0.0000 C   0  0  0  0  0  0  0  0  0  0  0  0
    8.0622   -7.8170    0.0000 C   0  0  0  0  0  0  0  0  0  0  0  0
    8.9282   -6.3170    0.0000 C   0  0  0  0  0  0  0  0  0  0  0  0
   10.6603   -7.3170    0.0000 C   0  0  0  0  0  0  0  0  0  0  0  0
   26.2487   -7.3170    0.0000 C   0  0  0  0  0  0  0  0  0  0  0  0
   17.5885    8.6830    0.0000 C   0  0  0  0  0  0  0  0  0  0  0  0
    9.7942   -4.8170    0.0000 C   0  0  0  0  0  0  0  0  0  0  0  0
    3.3335   -8.7919    0.0000 H   0  0  0  0  0  0  0  0  0  0  0  0
    4.1306   -8.7919    0.0000 H   0  0  0  0  0  0  0  0  0  0  0  0
    2.3100   -6.7800    0.0000 H   0  0  0  0  0  0  0  0  0  0  0  0
    1.4631   -7.0070    0.0000 H   0  0  0  0  0  0  0  0  0  0  0  0
    1.6900   -7.8539    0.0000 H   0  0  0  0  0  0  0  0  0  0  0  0
    1.8291   -8.3730    0.0000 H   0  0  0  0  0  0  0  0  0  0  0  0
    2.0560   -9.2200    0.0000 H   0  0  0  0  0  0  0  0  0  0  0  0
    2.9030   -8.9930    0.0000 H   0  0  0  0  0  0  0  0  0  0  0  0
    3.9030   -7.2610    0.0000 H   0  0  0  0  0  0  0  0  0  0  0  0
    3.6760   -6.4140    0.0000 H   0  0  0  0  0  0  0  0  0  0  0  0
    2.8291   -6.6410    0.0000 H   0  0  0  0  0  0  0  0  0  0  0  0
    4.9966   -7.3420    0.0000 H   0  0  0  0  0  0  0  0  0  0  0  0
    4.1996   -7.3420    0.0000 H   0  0  0  0  0  0  0  0  0  0  0  0
   21.5201   -8.2919    0.0000 H   0  0  0  0  0  0  0  0  0  0  0  0
   22.3171   -8.2919    0.0000 H   0  0  0  0  0  0  0  0  0  0  0  0
   16.0685    4.1004    0.0000 H   0  0  0  0  0  0  0  0  0  0  0  0
   16.4670    4.7907    0.0000 H   0  0  0  0  0  0  0  0  0  0  0  0
   23.1831   -6.8420    0.0000 H   0  0  0  0  0  0  0  0  0  0  0  0
   22.3861   -6.8420    0.0000 H   0  0  0  0  0  0  0  0  0  0  0  0
   15.6444    6.2656    0.0000 H   0  0  0  0  0  0  0  0  0  0  0  0
   15.2458    5.5754    0.0000 H   0  0  0  0  0  0  0  0  0  0  0  0
   21.4511   -6.8420    0.0000 H   0  0  0  0  0  0  0  0  0  0  0  0
   20.6540   -6.8420    0.0000 H   0  0  0  0  0  0  0  0  0  0  0  0
   14.7783    4.7656    0.0000 H   0  0  0  0  0  0  0  0  0  0  0  0
   14.3798    4.0754    0.0000 H   0  0  0  0  0  0  0  0  0  0  0  0
   23.2521   -8.2919    0.0000 H   0  0  0  0  0  0  0  0  0  0  0  0
   24.0492   -8.2919    0.0000 H   0  0  0  0  0  0  0  0  0  0  0  0
   16.9345    5.6004    0.0000 H   0  0  0  0  0  0  0  0  0  0  0  0
   17.3330    6.2907    0.0000 H   0  0  0  0  0  0  0  0  0  0  0  0
   19.7880   -8.2919    0.0000 H   0  0  0  0  0  0  0  0  0  0  0  0
   20.5851   -8.2919    0.0000 H   0  0  0  0  0  0  0  0  0  0  0  0
   15.2024    2.6004    0.0000 H   0  0  0  0  0  0  0  0  0  0  0  0
   15.6010    3.2907    0.0000 H   0  0  0  0  0  0  0  0  0  0  0  0
   14.5229   -6.8420    0.0000 H   0  0  0  0  0  0  0  0  0  0  0  0
   13.7258   -6.8420    0.0000 H   0  0  0  0  0  0  0  0  0  0  0  0
   14.5919   -8.2919    0.0000 H   0  0  0  0  0  0  0  0  0  0  0  0
   15.3889   -8.2919    0.0000 H   0  0  0  0  0  0  0  0  0  0  0  0
   11.3142   -1.2344    0.0000 H   0  0  0  0  0  0  0  0  0  0  0  0
   10.9157   -1.9246    0.0000 H   0  0  0  0  0  0  0  0  0  0  0  0
   12.8598   -8.2919    0.0000 H   0  0  0  0  0  0  0  0  0  0  0  0
   13.6569   -8.2919    0.0000 H   0  0  0  0  0  0  0  0  0  0  0  0
   12.6044   -1.8996    0.0000 H   0  0  0  0  0  0  0  0  0  0  0  0
   13.0029   -1.2093    0.0000 H   0  0  0  0  0  0  0  0  0  0  0  0
   16.2549   -6.8420    0.0000 H   0  0  0  0  0  0  0  0  0  0  0  0
   15.4579   -6.8420    0.0000 H   0  0  0  0  0  0  0  0  0  0  0  0
   11.7383   -3.3996    0.0000 H   0  0  0  0  0  0  0  0  0  0  0  0
   12.1369   -2.7093    0.0000 H   0  0  0  0  0  0  0  0  0  0  0  0
   24.9152   -6.8420    0.0000 H   0  0  0  0  0  0  0  0  0  0  0  0
   24.1181   -6.8420    0.0000 H   0  0  0  0  0  0  0  0  0  0  0  0
   16.5104    7.7656    0.0000 H   0  0  0  0  0  0  0  0  0  0  0  0
   16.1119    7.0754    0.0000 H   0  0  0  0  0  0  0  0  0  0  0  0
   12.1803    0.2656    0.0000 H   0  0  0  0  0  0  0  0  0  0  0  0
   11.7817   -0.4246    0.0000 H   0  0  0  0  0  0  0  0  0  0  0  0
   19.7190   -6.8420    0.0000 H   0  0  0  0  0  0  0  0  0  0  0  0
   18.9220   -6.8420    0.0000 H   0  0  0  0  0  0  0  0  0  0  0  0
   13.9123    3.2656    0.0000 H   0  0  0  0  0  0  0  0  0  0  0  0
   13.5138    2.5753    0.0000 H   0  0  0  0  0  0  0  0  0  0  0  0
   12.7908   -6.8420    0.0000 H   0  0  0  0  0  0  0  0  0  0  0  0
   11.9938   -6.8420    0.0000 H   0  0  0  0  0  0  0  0  0  0  0  0
   16.3239   -8.2919    0.0000 H   0  0  0  0  0  0  0  0  0  0  0  0
   17.1210   -8.2919    0.0000 H   0  0  0  0  0  0  0  0  0  0  0  0
   10.4482   -2.7344    0.0000 H   0  0  0  0  0  0  0  0  0  0  0  0
   10.0497   -3.4246    0.0000 H   0  0  0  0  0  0  0  0  0  0  0  0
   13.4704   -0.3996    0.0000 H   0  0  0  0  0  0  0  0  0  0  0  0
   13.8689    0.2907    0.0000 H   0  0  0  0  0  0  0  0  0  0  0  0
   24.9842   -8.2919    0.0000 H   0  0  0  0  0  0  0  0  0  0  0  0
   25.7812   -8.2919    0.0000 H   0  0  0  0  0  0  0  0  0  0  0  0
   17.8005    7.1004    0.0000 H   0  0  0  0  0  0  0  0  0  0  0  0
   18.1990    7.7907    0.0000 H   0  0  0  0  0  0  0  0  0  0  0  0
   11.1278   -8.2919    0.0000 H   0  0  0  0  0  0  0  0  0  0  0  0
   11.9248   -8.2919    0.0000 H   0  0  0  0  0  0  0  0  0  0  0  0
   18.4545   -8.4370    0.0000 H   0  0  0  0  0  0  0  0  0  0  0  0
   14.6613    1.3730    0.0000 H   0  0  0  0  0  0  0  0  0  0  0  0
    9.4651   -7.0070    0.0000 H   0  0  0  0  0  0  0  0  0  0  0  0
   17.5885   -6.6970    0.0000 H   0  0  0  0  0  0  0  0  0  0  0  0
   10.8723   -4.8996    0.0000 H   0  0  0  0  0  0  0  0  0  0  0  0
   11.2708   -4.2093    0.0000 H   0  0  0  0  0  0  0  0  0  0  0  0
   12.7214    1.4930    0.0000 H   0  0  0  0  0  0  0  0  0  0  0  0
    7.6636   -8.2919    0.0000 H   0  0  0  0  0  0  0  0  0  0  0  0
    8.4607   -8.2919    0.0000 H   0  0  0  0  0  0  0  0  0  0  0  0
    8.7162   -5.7344    0.0000 H   0  0  0  0  0  0  0  0  0  0  0  0
    8.3176   -6.4246    0.0000 H   0  0  0  0  0  0  0  0  0  0  0  0
   26.5587   -7.8539    0.0000 H   0  0  0  0  0  0  0  0  0  0  0  0
   26.7856   -7.0070    0.0000 H   0  0  0  0  0  0  0  0  0  0  0  0
   25.9387   -6.7800    0.0000 H   0  0  0  0  0  0  0  0  0  0  0  0
   18.2085    8.6830    0.0000 H   0  0  0  0  0  0  0  0  0  0  0  0
   17.5885    9.3030    0.0000 H   0  0  0  0  0  0  0  0  0  0  0  0
   16.9685    8.6830    0.0000 H   0  0  0  0  0  0  0  0  0  0  0  0
    6.1401   -6.4140    0.0000 H   0  0  0  0  0  0  0  0  0  0  0  0
  1  2  1  0  0  0  0
  1  3  1  0  0  0  0
  1  6  1  0  0  0  0
  1  7  2  0  0  0  0
  2 15  1  0  0  0  0
  3 51  1  0  0  0  0
  4 47  1  0  0  0  0
  4 53  1  0  0  0  0
  5 52  1  0  0  0  0
  5 56  1  0  0  0  0
  6145  1  0  0  0  0
  8 53  2  0  0  0  0
  9 56  2  0  0  0  0
 10 11  1  0  0  0  0
 10 12  1  0  0  0  0
 10 13  1  0  0  0  0
 10 14  1  0  0  0  0
 11 15  1  0  0  0  0
 11 57  1  0  0  0  0
 11 58  1  0  0  0  0
 12 59  1  0  0  0  0
 12 60  1  0  0  0  0
 12 61  1  0  0  0  0
 13 62  1  0  0  0  0
 13 63  1  0  0  0  0
 13 64  1  0  0  0  0
 14 65  1  0  0  0  0
 14 66  1  0  0  0  0
 14 67  1  0  0  0  0
 15 68  1  0  0  0  0
 15 69  1  0  0  0  0
 16 18  1  0  0  0  0
 16 20  1  0  0  0  0
 16 70  1  0  0  0  0
 16 71  1  0  0  0  0
 17 19  1  0  0  0  0
 17 21  1  0  0  0  0
 17 72  1  0  0  0  0
 17 73  1  0  0  0  0
 18 22  1  0  0  0  0
 18 74  1  0  0  0  0
 18 75  1  0  0  0  0
 19 23  1  0  0  0  0
 19 76  1  0  0  0  0
 19 77  1  0  0  0  0
 20 24  1  0  0  0  0
 20 78  1  0  0  0  0
 20 79  1  0  0  0  0
 21 25  1  0  0  0  0
 21 80  1  0  0  0  0
 21 81  1  0  0  0  0
 22 33  1  0  0  0  0
 22 82  1  0  0  0  0
 22 83  1  0  0  0  0
 23 34  1  0  0  0  0
 23 84  1  0  0  0  0
 23 85  1  0  0  0  0
 24 36  1  0  0  0  0
 24 86  1  0  0  0  0
 24 87  1  0  0  0  0
 25 37  1  0  0  0  0
 25 88  1  0  0  0  0
 25 89  1  0  0  0  0
 26 27  1  0  0  0  0
 26 29  1  0  0  0  0
 26 90  1  0  0  0  0
 26 91  1  0  0  0  0
 27 31  1  0  0  0  0
 27 92  1  0  0  0  0
 27 93  1  0  0  0  0
 28 30  1  0  0  0  0
 28 32  1  0  0  0  0
 28 94  1  0  0  0  0
 28 95  1  0  0  0  0
 29 38  1  0  0  0  0
 29 96  1  0  0  0  0
 29 97  1  0  0  0  0
 30 35  1  0  0  0  0
 30 98  1  0  0  0  0
 30 99  1  0  0  0  0
 31 39  1  0  0  0  0
 31100  1  0  0  0  0
 31101  1  0  0  0  0
 32 40  1  0  0  0  0
 32102  1  0  0  0  0
 32103  1  0  0  0  0
 33 42  1  0  0  0  0
 33104  1  0  0  0  0
 33105  1  0  0  0  0
 34 43  1  0  0  0  0
 34106  1  0  0  0  0
 34107  1  0  0  0  0
 35 41  1  0  0  0  0
 35108  1  0  0  0  0
 35109  1  0  0  0  0
 36 45  1  0  0  0  0
 36110  1  0  0  0  0
 36111  1  0  0  0  0
 37 46  1  0  0  0  0
 37112  1  0  0  0  0
 37113  1  0  0  0  0
 38 44  1  0  0  0  0
 38114  1  0  0  0  0
 38115  1  0  0  0  0
 39 48  1  0  0  0  0
 39116  1  0  0  0  0
 39117  1  0  0  0  0
 40 49  1  0  0  0  0
 40118  1  0  0  0  0
 40119  1  0  0  0  0
 41 50  1  0  0  0  0
 41120  1  0  0  0  0
 41121  1  0  0  0  0
 42 54  1  0  0  0  0
 42122  1  0  0  0  0
 42123  1  0  0  0  0
 43 55  1  0  0  0  0
 43124  1  0  0  0  0
 43125  1  0  0  0  0
 44 53  1  0  0  0  0
 44126  1  0  0  0  0
 44127  1  0  0  0  0
 45 48  2  0  0  0  0
 45128  1  0  0  0  0
 46 50  2  0  0  0  0
 46129  1  0  0  0  0
 47 51  1  0  0  0  0
 47 52  1  0  0  0  0
 47130  1  0  0  0  0
 48131  1  0  0  0  0
 49 56  1  0  0  0  0
 49132  1  0  0  0  0
 49133  1  0  0  0  0
 50134  1  0  0  0  0
 51135  1  0  0  0  0
 51136  1  0  0  0  0
 52137  1  0  0  0  0
 52138  1  0  0  0  0
 54139  1  0  0  0  0
 54140  1  0  0  0  0
 54141  1  0  0  0  0
 55142  1  0  0  0  0
 55143  1  0  0  0  0
 55144  1  0  0  0  0
M  CHG  1  10   1
M  END
> <PUBCHEM_COMPOUND_CID>
6850739

> <PUBCHEM_COMPOUND_CANONICALIZED>
1

> <PUBCHEM_CACTVS_COMPLEXITY>
1010

> <PUBCHEM_CACTVS_HBOND_ACCEPTOR>
8

> <PUBCHEM_CACTVS_HBOND_DONOR>
1

> <PUBCHEM_CACTVS_ROTATABLE_BOND>
44

> <PUBCHEM_CACTVS_SUBSKEYS>
AAADcfB+PAIAAAAAAAAAAAAAAAAAAAAAAAAAAAAAAAAAAAAAAAAAHgAACCAACBThgAYCCAMABRCIQCDSCIAAAAAgAAAICAEIAAgDABIAAQACAAAFgAAaAAOIyKCAAAAAAAAAAAAAAAAAAAAAAAAAAAAAAA==

> <PUBCHEM_IUPAC_OPENEYE_NAME>
2-[2,3-bis[[(E)-nonadec-9-enoyl]oxy]propoxy-hydroxy-phosphoryl]oxyethyl-trimethyl-ammonium

> <PUBCHEM_IUPAC_CAS_NAME>
2-[2,3-bis[(E)-1-oxononadec-9-enoxy]propoxy-hydroxyphosphoryl]oxyethyl-trimethylammonium

> <PUBCHEM_IUPAC_NAME>
2-[2,3-bis[[(E)-nonadec-9-enoyl]oxy]propoxy-hydroxyphosphoryl]oxyethyl-trimethylazanium

> <PUBCHEM_IUPAC_SYSTEMATIC_NAME>
2-[2,3-bis[[(E)-nonadec-9-enoyl]oxy]propoxy-oxidanyl-phosphoryl]oxyethyl-trimethyl-azanium

> <PUBCHEM_IUPAC_TRADITIONAL_NAME>
2-[2,3-bis[[(E)-nonadec-9-enoyl]oxy]propoxy-hydroxy-phosphoryl]oxyethyl-trimethyl-ammonium

> <PUBCHEM_IUPAC_INCHI>
InChI=1S/C46H88NO8P/c1-6-8-10-12-14-16-18-20-22-24-26-28-30-32-34-36-38-45(48)52-42-44(43-54-56(50,51)53-41-40-47(3,4)5)55-46(49)39-37-35-33-31-29-27-25-23-21-19-17-15-13-11-9-7-2/h22-25,44H,6-21,26-43H2,1-5H3/p+1/b24-22+,25-23+

> <PUBCHEM_IUPAC_INCHIKEY>
HJYITXYOCDILBF-BQASJOSNSA-O

> <PUBCHEM_XLOGP3_AA>
14.9

> <PUBCHEM_EXACT_MASS>
814.63258

> <PUBCHEM_MOLECULAR_FORMULA>
C46H89NO8P+

> <PUBCHEM_MOLECULAR_WEIGHT>
815.174522

> <PUBCHEM_OPENEYE_CAN_SMILES>
CCCCCCCCCC=CCCCCCCCC(=O)OCC(COP(=O)(O)OCC[N+](C)(C)C)OC(=O)CCCCCCCC=CCCCCCCCCC

> <PUBCHEM_OPENEYE_ISO_SMILES>
CCCCCCCCC/C=C/CCCCCCCC(=O)OCC(COP(=O)(O)OCC[N+](C)(C)C)OC(=O)CCCCCCC/C=C/CCCCCCCCC

> <PUBCHEM_CACTVS_TPSA>
108

> <PUBCHEM_MONOISOTOPIC_WEIGHT>
814.63258

> <PUBCHEM_TOTAL_CHARGE>
1

> <PUBCHEM_HEAVY_ATOM_COUNT>
56

> <PUBCHEM_ATOM_DEF_STEREO_COUNT>
0

> <PUBCHEM_ATOM_UDEF_STEREO_COUNT>
1

> <PUBCHEM_BOND_DEF_STEREO_COUNT>
2

> <PUBCHEM_BOND_UDEF_STEREO_COUNT>
0

> <PUBCHEM_ISOTOPIC_ATOM_COUNT>
0

> <PUBCHEM_COMPONENT_COUNT>
1

> <PUBCHEM_CACTVS_TAUTO_COUNT>
1

> <PUBCHEM_COORDINATE_TYPE>
1
5
255

> <PUBCHEM_BONDANNOTATIONS>
47  51  3

$$$$
